27
	Energy:     276.6005205
Al        -2.89225        2.50181       -0.38051
N         -3.77771        3.51285       -1.74940
H         -4.61742        3.99192       -1.35407
H         -3.12821        4.23348       -2.13718
N         -3.71123        1.93901        1.26304
H         -4.74480        1.86213        1.13227
H         -3.34013        1.00460        1.54587
N         -2.42586        4.16357        0.46680
H         -3.21819        4.84229        0.42740
H         -2.21135        4.00271        1.47676
N         -3.56182        0.92024       -1.23706
H         -3.18931        0.06827       -0.76102
H         -4.60539        0.89693       -1.18912
Al         0.51593        2.53564       -0.11729
O         -1.13729        2.04829       -0.84946
N          0.29216        4.25220        0.73301
H          0.68649        4.35461        1.69721
H          0.62033        5.03526        0.12413
N          2.30752        3.04579        0.35472
H          2.93926        2.82528       -0.44653
H          2.62561        2.48878        1.17900
N         -0.24730        1.88142        1.52298
H         -0.52449        0.88131        1.40404
H          0.47430        1.91201        2.27788
N          0.85854        0.94776       -1.12786
H          1.52530        0.35041       -0.58977
H          1.32032        1.21808       -2.02457
