24
	Energy:      65.3937516
N         -5.97725        0.36746        0.00000
C         -4.71942        0.96443        0.00000
C         -3.59736        0.13540        0.00000
C         -6.09083       -1.02257        0.00000
N         -4.96048       -1.82537       -0.00000
C         -3.74508       -1.21580       -0.00000
N         -2.27577        0.41807        0.00000
C         -1.66276       -0.79000       -0.00000
N         -2.54166       -1.81977       -0.00000
C         -1.59073        1.70966        0.00000
H         -0.48766        1.55774        0.00000
H         -1.85836        2.28673        0.90887
H         -1.85836        2.28673       -0.90887
O         -4.59310        2.17780        0.00000
C         -7.21332        1.16970        0.00000
H         -7.01718        2.26101        0.00000
H         -7.81669        0.92933        0.90262
H         -7.81669        0.92933       -0.90262
O         -7.19749       -1.54201        0.00000
C         -5.08559       -3.28890       -0.00000
H         -4.09717       -3.79416       -0.00000
H         -5.63970       -3.61708       -0.90495
H         -5.63970       -3.61708        0.90495
H         -0.58894       -0.92426       -0.00000
