22
	Energy:      31.9839716
C         -4.51280        0.03542        0.00000
C         -3.11150        0.03238       -0.00000
C         -5.21053       -1.17387        0.00000
C         -2.42975       -1.20690       -0.00000
C         -4.50119       -2.37680       -0.00000
N         -3.14169       -2.36831        0.00000
H         -5.06509        0.96756       -0.00000
H         -6.29285       -1.17918       -0.00000
H         -5.03245       -3.31912        0.00000
C         -2.38471        1.23177        0.00000
C         -0.98719        1.20765        0.00000
C         -0.30221       -0.01609       -0.00000
C         -1.02630       -1.23112       -0.00000
C          1.09836       -0.06139        0.00000
C          1.75396       -1.29403       -0.00000
N         -0.35486       -2.41639        0.00000
C          1.00354       -2.47178       -0.00000
H          1.50197       -3.43187        0.00000
H          2.83544       -1.33668        0.00000
H          1.68248        0.85114       -0.00000
H         -2.89683        2.18661       -0.00000
H         -0.44244        2.14426       -0.00000
