133
	Energy:     374.2608450
Zr        13.09998       14.89645       19.56680
S         15.15741       14.05263       19.96954
S         14.58670       16.32380       18.44016
C         16.64818       15.01504       19.70235
H         16.63594       15.85044       20.40779
C         16.29160       15.51773       18.32213
H         16.22782       14.62069       17.66697
C         17.37747       16.37650       17.65365
H         18.27720       15.74762       17.49428
H         17.03847       16.63061       16.63083
C         17.81294       17.67845       18.32736
H         16.96971       18.39706       18.41332
H         18.54355       18.11866       17.61137
C         18.55507       17.56918       19.67405
H         17.88819       17.53135       20.55690
H         19.07648       18.54734       19.77404
C         19.60821       16.43991       19.74317
H         20.11807       16.29457       18.76751
H         20.39209       16.79846       20.44721
C         19.12366       15.11645       20.39382
H         18.80825       15.37678       21.42884
H         20.01249       14.45583       20.49003
C         17.98449       14.25645       19.78508
H         17.86056       13.43407       20.52082
H         18.25058       13.77275       18.82120
C         15.25133       13.85050       21.77185
H         14.31420       13.39349       22.11418
H         16.04639       13.12259       22.03666
C         15.43472       15.17352       22.40411
C         16.50720       15.42812       23.26397
H         17.19540       14.62075       23.46424
C         16.69365       16.70734       23.82267
C         15.74440       17.70177       23.51440
H         15.88987       18.67155       23.95373
C         14.65043       17.47112       22.64701
C         14.53500       16.17382       22.06900
C         17.89281       17.06264       24.72997
C         18.84630       15.86823       24.96741
H         19.27397       15.50433       24.00816
H         18.31648       15.03241       25.47253
H         19.69713       16.16838       25.61732
C         18.71764       18.18749       24.06131
H         19.09410       17.85448       23.06922
H         19.59127       18.46514       24.68987
H         18.11803       19.10872       23.90828
C         17.38631       17.54198       26.10794
H         18.23981       17.80762       26.76885
H         16.79553       16.74165       26.60271
H         16.74599       18.44421       26.02431
C         13.63467       18.60893       22.31987
C         13.64084       18.92965       20.80911
H         14.65815       19.23245       20.47922
H         12.93712       19.75901       20.57871
H         13.31416       18.07539       20.19651
C         12.21782       18.18084       22.75817
H         11.47713       18.98132       22.54223
H         12.19685       17.96997       23.84917
H         11.87638       17.27520       22.22747
C         13.94603       19.94070       23.05153
H         13.19171       20.71785       22.79801
H         14.93888       20.34008       22.75032
H         13.91982       19.80728       24.15466
O         13.55550       15.93400       21.16620
C         14.34986       16.57390       16.68484
H         13.30196       16.92116       16.59076
H         14.96796       17.39127       16.25903
C         14.45645       15.24235       16.00642
C         15.17828       15.17309       14.80995
H         15.62130       16.08471       14.43844
C         15.32038       13.96591       14.10644
C         14.70819       12.82033       14.64241
H         14.82434       11.90676       14.09002
C         13.98157       12.83086       15.85624
C         13.86800       14.07110       16.55756
C         16.11605       13.85268       12.78461
C         16.73684       15.19614       12.33288
H         15.94818       15.95786       12.15187
H         17.30149       15.06899       11.38347
H         17.44906       15.58011       13.09517
C         17.27411       12.84454       12.96458
H         17.86116       12.74647       12.02572
H         16.90705       11.83094       13.22721
H         17.95995       13.18283       13.77127
C         15.17965       13.36770       11.65557
H         14.74250       12.37228       11.87725
H         15.73398       13.27656       10.69631
H         14.34531       14.08728       11.50978
C         13.35359       11.51092       16.41108
C         13.97257       11.15862       17.78335
H         13.77988       11.92601       18.55065
H         15.07298       11.03348       17.69032
H         13.54611       10.21027       18.17684
C         13.59238       10.27970       15.49679
H         14.67778       10.06646       15.38567
H         13.13996       10.43260       14.49294
H         13.12582        9.36743       15.92955
C         11.82328       11.66250       16.54614
H         11.36822       11.89883       15.56016
H         11.54356       12.45788       17.25485
H         11.36427       10.72418       16.92679
O         13.19490       14.06000       17.74930
C         11.24040       16.27090       18.99640
H         10.70080       16.51857       19.92584
H         11.64760       17.22101       18.59618
Si         9.96688       15.65691       17.74037
C          8.69269       17.01528       17.60496
H          8.22668       17.18365       18.59765
H          7.91090       16.71881       16.87590
H          9.18251       17.94997       17.26313
C          9.04885       14.11489       18.25588
H          8.51863       14.29612       19.20748
H          9.73784       13.26142       18.36571
H          8.29717       13.86880       17.47832
C         10.65515       15.40625       16.02321
H         11.14774       16.33637       15.67614
H          9.81993       15.16110       15.33579
H         11.36846       14.56860       16.00661
C         12.05580       13.16290       20.61930
H         11.31200       12.76824       19.90444
H         12.78712       12.34806       20.78774
Si        11.13373       13.47729       22.25114
C         12.19958       13.96193       23.70864
H         11.55434       14.05121       24.60634
H         12.67934       14.93981       23.52712
H         12.96210       13.18214       23.90494
C          9.77062       14.74301       22.13617
H          9.05062       14.45244       21.35246
H         10.18959       15.74044       21.92703
H          9.23917       14.78508       23.10887
C         10.32891       11.85189       22.69488
H          9.63612       11.54969       21.88275
H          9.76148       11.96499       23.64137
H         11.11039       11.07502       22.82249
